LAMMPS data file written via buildLAMMPSconfig.m
 
6825 atoms
6675 bonds
 
44 atom types
2 bond types
 
0 792.6889 xlo xhi
0 792.6889 ylo yhi
0 792.6889 zlo zhi
 
Masses
 
1 131.2
2 57.05
3 128.2
4 101.1
5 156.2
6 71.08
7 115.1
8 129.1
9 163.2
10 99.07
11 113.2
12 128.1
13 186.2
14 147.2
15 87.08
16 137.1
17 114.1
18 97.12
19 103.1
20 113.2
21 131.2
22 57.05
23 128.2
24 101.1
25 156.2
26 71.08
27 115.1
28 129.1
29 163.2
30 99.07
31 113.2
32 128.1
33 186.2
34 147.2
35 87.08
36 137.1
37 114.1
38 97.12
39 103.1
40 113.2
41 329.2
42 305.2
43 345.2
44 306.2
 
Atoms
 
1 1 41 -0.75 70 60 80 
2 1 41 -0.75 70 65 80 
3 1 41 -0.75 70 70 80 
4 1 41 -0.75 70 75 80 
5 1 41 -0.75 70 80 80 
6 1 41 -0.75 70 85 80 
7 1 41 -0.75 70 90 80 
8 1 41 -0.75 70 95 80 
9 1 41 -0.75 70 100 80 
10 1 41 -0.75 70 105 80 
11 1 41 -0.75 70 110 80 
12 1 41 -0.75 70 115 80 
13 1 41 -0.75 70 120 80 
14 1 41 -0.75 70 125 80 
15 1 41 -0.75 70 130 80 
16 1 41 -0.75 70 135 80 
17 1 41 -0.75 70 140 80 
18 1 41 -0.75 70 145 80 
19 1 41 -0.75 70 150 80 
20 1 41 -0.75 70 155 80 
21 1 41 -0.75 70 160 80 
22 1 41 -0.75 70 165 80 
23 1 41 -0.75 70 170 80 
24 1 41 -0.75 70 175 80 
25 1 41 -0.75 70 180 80 
26 1 41 -0.75 70 185 80 
27 1 41 -0.75 70 190 80 
28 1 41 -0.75 70 195 80 
29 1 41 -0.75 70 200 80 
30 1 41 -0.75 70 205 80 
31 2 41 -0.75 70 323.8445 238.1722 
32 2 41 -0.75 70 328.8445 238.1722 
33 2 41 -0.75 70 333.8445 238.1722 
34 2 41 -0.75 70 338.8445 238.1722 
35 2 41 -0.75 70 343.8445 238.1722 
36 2 41 -0.75 70 348.8445 238.1722 
37 2 41 -0.75 70 353.8445 238.1722 
38 2 41 -0.75 70 358.8445 238.1722 
39 2 41 -0.75 70 363.8445 238.1722 
40 2 41 -0.75 70 368.8445 238.1722 
41 2 41 -0.75 70 373.8445 238.1722 
42 2 41 -0.75 70 378.8445 238.1722 
43 2 41 -0.75 70 383.8445 238.1722 
44 2 41 -0.75 70 388.8445 238.1722 
45 2 41 -0.75 70 393.8445 238.1722 
46 2 41 -0.75 70 398.8445 238.1722 
47 2 41 -0.75 70 403.8445 238.1722 
48 2 41 -0.75 70 408.8445 238.1722 
49 2 41 -0.75 70 413.8445 238.1722 
50 2 41 -0.75 70 418.8445 238.1722 
51 2 41 -0.75 70 423.8445 238.1722 
52 2 41 -0.75 70 428.8445 238.1722 
53 2 41 -0.75 70 433.8445 238.1722 
54 2 41 -0.75 70 438.8445 238.1722 
55 2 41 -0.75 70 443.8445 238.1722 
56 2 41 -0.75 70 448.8445 238.1722 
57 2 41 -0.75 70 453.8445 238.1722 
58 2 41 -0.75 70 458.8445 238.1722 
59 2 41 -0.75 70 463.8445 238.1722 
60 2 41 -0.75 70 468.8445 238.1722 
61 3 41 -0.75 70 587.6889 396.3445 
62 3 41 -0.75 70 592.6889 396.3445 
63 3 41 -0.75 70 597.6889 396.3445 
64 3 41 -0.75 70 602.6889 396.3445 
65 3 41 -0.75 70 607.6889 396.3445 
66 3 41 -0.75 70 612.6889 396.3445 
67 3 41 -0.75 70 617.6889 396.3445 
68 3 41 -0.75 70 622.6889 396.3445 
69 3 41 -0.75 70 627.6889 396.3445 
70 3 41 -0.75 70 632.6889 396.3445 
71 3 41 -0.75 70 637.6889 396.3445 
72 3 41 -0.75 70 642.6889 396.3445 
73 3 41 -0.75 70 647.6889 396.3445 
74 3 41 -0.75 70 652.6889 396.3445 
75 3 41 -0.75 70 657.6889 396.3445 
76 3 41 -0.75 70 662.6889 396.3445 
77 3 41 -0.75 70 667.6889 396.3445 
78 3 41 -0.75 70 672.6889 396.3445 
79 3 41 -0.75 70 677.6889 396.3445 
80 3 41 -0.75 70 682.6889 396.3445 
81 3 41 -0.75 70 687.6889 396.3445 
82 3 41 -0.75 70 692.6889 396.3445 
83 3 41 -0.75 70 697.6889 396.3445 
84 3 41 -0.75 70 702.6889 396.3445 
85 3 41 -0.75 70 707.6889 396.3445 
86 3 41 -0.75 70 712.6889 396.3445 
87 3 41 -0.75 70 717.6889 396.3445 
88 3 41 -0.75 70 722.6889 396.3445 
89 3 41 -0.75 70 727.6889 396.3445 
90 3 41 -0.75 70 732.6889 396.3445 
91 4 41 -0.75 70 60 554.5167 
92 4 41 -0.75 70 65 554.5167 
93 4 41 -0.75 70 70 554.5167 
94 4 41 -0.75 70 75 554.5167 
95 4 41 -0.75 70 80 554.5167 
96 4 41 -0.75 70 85 554.5167 
97 4 41 -0.75 70 90 554.5167 
98 4 41 -0.75 70 95 554.5167 
99 4 41 -0.75 70 100 554.5167 
100 4 41 -0.75 70 105 554.5167 
101 4 41 -0.75 70 110 554.5167 
102 4 41 -0.75 70 115 554.5167 
103 4 41 -0.75 70 120 554.5167 
104 4 41 -0.75 70 125 554.5167 
105 4 41 -0.75 70 130 554.5167 
106 4 41 -0.75 70 135 554.5167 
107 4 41 -0.75 70 140 554.5167 
108 4 41 -0.75 70 145 554.5167 
109 4 41 -0.75 70 150 554.5167 
110 4 41 -0.75 70 155 554.5167 
111 4 41 -0.75 70 160 554.5167 
112 4 41 -0.75 70 165 554.5167 
113 4 41 -0.75 70 170 554.5167 
114 4 41 -0.75 70 175 554.5167 
115 4 41 -0.75 70 180 554.5167 
116 4 41 -0.75 70 185 554.5167 
117 4 41 -0.75 70 190 554.5167 
118 4 41 -0.75 70 195 554.5167 
119 4 41 -0.75 70 200 554.5167 
120 4 41 -0.75 70 205 554.5167 
121 5 41 -0.75 70 323.8445 712.6889 
122 5 41 -0.75 70 328.8445 712.6889 
123 5 41 -0.75 70 333.8445 712.6889 
124 5 41 -0.75 70 338.8445 712.6889 
125 5 41 -0.75 70 343.8445 712.6889 
126 5 41 -0.75 70 348.8445 712.6889 
127 5 41 -0.75 70 353.8445 712.6889 
128 5 41 -0.75 70 358.8445 712.6889 
129 5 41 -0.75 70 363.8445 712.6889 
130 5 41 -0.75 70 368.8445 712.6889 
131 5 41 -0.75 70 373.8445 712.6889 
132 5 41 -0.75 70 378.8445 712.6889 
133 5 41 -0.75 70 383.8445 712.6889 
134 5 41 -0.75 70 388.8445 712.6889 
135 5 41 -0.75 70 393.8445 712.6889 
136 5 41 -0.75 70 398.8445 712.6889 
137 5 41 -0.75 70 403.8445 712.6889 
138 5 41 -0.75 70 408.8445 712.6889 
139 5 41 -0.75 70 413.8445 712.6889 
140 5 41 -0.75 70 418.8445 712.6889 
141 5 41 -0.75 70 423.8445 712.6889 
142 5 41 -0.75 70 428.8445 712.6889 
143 5 41 -0.75 70 433.8445 712.6889 
144 5 41 -0.75 70 438.8445 712.6889 
145 5 41 -0.75 70 443.8445 712.6889 
146 5 41 -0.75 70 448.8445 712.6889 
147 5 41 -0.75 70 453.8445 712.6889 
148 5 41 -0.75 70 458.8445 712.6889 
149 5 41 -0.75 70 463.8445 712.6889 
150 5 41 -0.75 70 468.8445 712.6889 
151 6 41 -0.75 215.042 587.6889 80 
152 6 41 -0.75 215.042 592.6889 80 
153 6 41 -0.75 215.042 597.6889 80 
154 6 41 -0.75 215.042 602.6889 80 
155 6 41 -0.75 215.042 607.6889 80 
156 6 41 -0.75 215.042 612.6889 80 
157 6 41 -0.75 215.042 617.6889 80 
158 6 41 -0.75 215.042 622.6889 80 
159 6 41 -0.75 215.042 627.6889 80 
160 6 41 -0.75 215.042 632.6889 80 
161 6 41 -0.75 215.042 637.6889 80 
162 6 41 -0.75 215.042 642.6889 80 
163 6 41 -0.75 215.042 647.6889 80 
164 6 41 -0.75 215.042 652.6889 80 
165 6 41 -0.75 215.042 657.6889 80 
166 6 41 -0.75 215.042 662.6889 80 
167 6 41 -0.75 215.042 667.6889 80 
168 6 41 -0.75 215.042 672.6889 80 
169 6 41 -0.75 215.042 677.6889 80 
170 6 41 -0.75 215.042 682.6889 80 
171 6 41 -0.75 215.042 687.6889 80 
172 6 41 -0.75 215.042 692.6889 80 
173 6 41 -0.75 215.042 697.6889 80 
174 6 41 -0.75 215.042 702.6889 80 
175 6 41 -0.75 215.042 707.6889 80 
176 6 41 -0.75 215.042 712.6889 80 
177 6 41 -0.75 215.042 717.6889 80 
178 6 41 -0.75 215.042 722.6889 80 
179 6 41 -0.75 215.042 727.6889 80 
180 6 41 -0.75 215.042 732.6889 80 
181 7 41 -0.75 215.042 60 238.1722 
182 7 41 -0.75 215.042 65 238.1722 
183 7 41 -0.75 215.042 70 238.1722 
184 7 41 -0.75 215.042 75 238.1722 
185 7 41 -0.75 215.042 80 238.1722 
186 7 41 -0.75 215.042 85 238.1722 
187 7 41 -0.75 215.042 90 238.1722 
188 7 41 -0.75 215.042 95 238.1722 
189 7 41 -0.75 215.042 100 238.1722 
190 7 41 -0.75 215.042 105 238.1722 
191 7 41 -0.75 215.042 110 238.1722 
192 7 41 -0.75 215.042 115 238.1722 
193 7 41 -0.75 215.042 120 238.1722 
194 7 41 -0.75 215.042 125 238.1722 
195 7 41 -0.75 215.042 130 238.1722 
196 7 41 -0.75 215.042 135 238.1722 
197 7 41 -0.75 215.042 140 238.1722 
198 7 41 -0.75 215.042 145 238.1722 
199 7 41 -0.75 215.042 150 238.1722 
200 7 41 -0.75 215.042 155 238.1722 
201 7 41 -0.75 215.042 160 238.1722 
202 7 41 -0.75 215.042 165 238.1722 
203 7 41 -0.75 215.042 170 238.1722 
204 7 41 -0.75 215.042 175 238.1722 
205 7 41 -0.75 215.042 180 238.1722 
206 7 41 -0.75 215.042 185 238.1722 
207 7 41 -0.75 215.042 190 238.1722 
208 7 41 -0.75 215.042 195 238.1722 
209 7 41 -0.75 215.042 200 238.1722 
210 7 41 -0.75 215.042 205 238.1722 
211 8 41 -0.75 215.042 323.8445 396.3445 
212 8 41 -0.75 215.042 328.8445 396.3445 
213 8 41 -0.75 215.042 333.8445 396.3445 
214 8 41 -0.75 215.042 338.8445 396.3445 
215 8 41 -0.75 215.042 343.8445 396.3445 
216 8 41 -0.75 215.042 348.8445 396.3445 
217 8 41 -0.75 215.042 353.8445 396.3445 
218 8 41 -0.75 215.042 358.8445 396.3445 
219 8 41 -0.75 215.042 363.8445 396.3445 
220 8 41 -0.75 215.042 368.8445 396.3445 
221 8 41 -0.75 215.042 373.8445 396.3445 
222 8 41 -0.75 215.042 378.8445 396.3445 
223 8 41 -0.75 215.042 383.8445 396.3445 
224 8 41 -0.75 215.042 388.8445 396.3445 
225 8 41 -0.75 215.042 393.8445 396.3445 
226 8 41 -0.75 215.042 398.8445 396.3445 
227 8 41 -0.75 215.042 403.8445 396.3445 
228 8 41 -0.75 215.042 408.8445 396.3445 
229 8 41 -0.75 215.042 413.8445 396.3445 
230 8 41 -0.75 215.042 418.8445 396.3445 
231 8 41 -0.75 215.042 423.8445 396.3445 
232 8 41 -0.75 215.042 428.8445 396.3445 
233 8 41 -0.75 215.042 433.8445 396.3445 
234 8 41 -0.75 215.042 438.8445 396.3445 
235 8 41 -0.75 215.042 443.8445 396.3445 
236 8 41 -0.75 215.042 448.8445 396.3445 
237 8 41 -0.75 215.042 453.8445 396.3445 
238 8 41 -0.75 215.042 458.8445 396.3445 
239 8 41 -0.75 215.042 463.8445 396.3445 
240 8 41 -0.75 215.042 468.8445 396.3445 
241 9 41 -0.75 215.042 587.6889 554.5167 
242 9 41 -0.75 215.042 592.6889 554.5167 
243 9 41 -0.75 215.042 597.6889 554.5167 
244 9 41 -0.75 215.042 602.6889 554.5167 
245 9 41 -0.75 215.042 607.6889 554.5167 
246 9 41 -0.75 215.042 612.6889 554.5167 
247 9 41 -0.75 215.042 617.6889 554.5167 
248 9 41 -0.75 215.042 622.6889 554.5167 
249 9 41 -0.75 215.042 627.6889 554.5167 
250 9 41 -0.75 215.042 632.6889 554.5167 
251 9 41 -0.75 215.042 637.6889 554.5167 
252 9 41 -0.75 215.042 642.6889 554.5167 
253 9 41 -0.75 215.042 647.6889 554.5167 
254 9 41 -0.75 215.042 652.6889 554.5167 
255 9 41 -0.75 215.042 657.6889 554.5167 
256 9 41 -0.75 215.042 662.6889 554.5167 
257 9 41 -0.75 215.042 667.6889 554.5167 
258 9 41 -0.75 215.042 672.6889 554.5167 
259 9 41 -0.75 215.042 677.6889 554.5167 
260 9 41 -0.75 215.042 682.6889 554.5167 
261 9 41 -0.75 215.042 687.6889 554.5167 
262 9 41 -0.75 215.042 692.6889 554.5167 
263 9 41 -0.75 215.042 697.6889 554.5167 
264 9 41 -0.75 215.042 702.6889 554.5167 
265 9 41 -0.75 215.042 707.6889 554.5167 
266 9 41 -0.75 215.042 712.6889 554.5167 
267 9 41 -0.75 215.042 717.6889 554.5167 
268 9 41 -0.75 215.042 722.6889 554.5167 
269 9 41 -0.75 215.042 727.6889 554.5167 
270 9 41 -0.75 215.042 732.6889 554.5167 
271 10 41 -0.75 215.042 60 712.6889 
272 10 41 -0.75 215.042 65 712.6889 
273 10 41 -0.75 215.042 70 712.6889 
274 10 41 -0.75 215.042 75 712.6889 
275 10 41 -0.75 215.042 80 712.6889 
276 10 41 -0.75 215.042 85 712.6889 
277 10 41 -0.75 215.042 90 712.6889 
278 10 41 -0.75 215.042 95 712.6889 
279 10 41 -0.75 215.042 100 712.6889 
280 10 41 -0.75 215.042 105 712.6889 
281 10 41 -0.75 215.042 110 712.6889 
282 10 41 -0.75 215.042 115 712.6889 
283 10 41 -0.75 215.042 120 712.6889 
284 10 41 -0.75 215.042 125 712.6889 
285 10 41 -0.75 215.042 130 712.6889 
286 10 41 -0.75 215.042 135 712.6889 
287 10 41 -0.75 215.042 140 712.6889 
288 10 41 -0.75 215.042 145 712.6889 
289 10 41 -0.75 215.042 150 712.6889 
290 10 41 -0.75 215.042 155 712.6889 
291 10 41 -0.75 215.042 160 712.6889 
292 10 41 -0.75 215.042 165 712.6889 
293 10 41 -0.75 215.042 170 712.6889 
294 10 41 -0.75 215.042 175 712.6889 
295 10 41 -0.75 215.042 180 712.6889 
296 10 41 -0.75 215.042 185 712.6889 
297 10 41 -0.75 215.042 190 712.6889 
298 10 41 -0.75 215.042 195 712.6889 
299 10 41 -0.75 215.042 200 712.6889 
300 10 41 -0.75 215.042 205 712.6889 
301 11 41 -0.75 360.084 323.8445 80 
302 11 41 -0.75 360.084 328.8445 80 
303 11 41 -0.75 360.084 333.8445 80 
304 11 41 -0.75 360.084 338.8445 80 
305 11 41 -0.75 360.084 343.8445 80 
306 11 41 -0.75 360.084 348.8445 80 
307 11 41 -0.75 360.084 353.8445 80 
308 11 41 -0.75 360.084 358.8445 80 
309 11 41 -0.75 360.084 363.8445 80 
310 11 41 -0.75 360.084 368.8445 80 
311 11 41 -0.75 360.084 373.8445 80 
312 11 41 -0.75 360.084 378.8445 80 
313 11 41 -0.75 360.084 383.8445 80 
314 11 41 -0.75 360.084 388.8445 80 
315 11 41 -0.75 360.084 393.8445 80 
316 11 41 -0.75 360.084 398.8445 80 
317 11 41 -0.75 360.084 403.8445 80 
318 11 41 -0.75 360.084 408.8445 80 
319 11 41 -0.75 360.084 413.8445 80 
320 11 41 -0.75 360.084 418.8445 80 
321 11 41 -0.75 360.084 423.8445 80 
322 11 41 -0.75 360.084 428.8445 80 
323 11 41 -0.75 360.084 433.8445 80 
324 11 41 -0.75 360.084 438.8445 80 
325 11 41 -0.75 360.084 443.8445 80 
326 11 41 -0.75 360.084 448.8445 80 
327 11 41 -0.75 360.084 453.8445 80 
328 11 41 -0.75 360.084 458.8445 80 
329 11 41 -0.75 360.084 463.8445 80 
330 11 41 -0.75 360.084 468.8445 80 
331 12 41 -0.75 360.084 587.6889 238.1722 
332 12 41 -0.75 360.084 592.6889 238.1722 
333 12 41 -0.75 360.084 597.6889 238.1722 
334 12 41 -0.75 360.084 602.6889 238.1722 
335 12 41 -0.75 360.084 607.6889 238.1722 
336 12 41 -0.75 360.084 612.6889 238.1722 
337 12 41 -0.75 360.084 617.6889 238.1722 
338 12 41 -0.75 360.084 622.6889 238.1722 
339 12 41 -0.75 360.084 627.6889 238.1722 
340 12 41 -0.75 360.084 632.6889 238.1722 
341 12 41 -0.75 360.084 637.6889 238.1722 
342 12 41 -0.75 360.084 642.6889 238.1722 
343 12 41 -0.75 360.084 647.6889 238.1722 
344 12 41 -0.75 360.084 652.6889 238.1722 
345 12 41 -0.75 360.084 657.6889 238.1722 
346 12 41 -0.75 360.084 662.6889 238.1722 
347 12 41 -0.75 360.084 667.6889 238.1722 
348 12 41 -0.75 360.084 672.6889 238.1722 
349 12 41 -0.75 360.084 677.6889 238.1722 
350 12 41 -0.75 360.084 682.6889 238.1722 
351 12 41 -0.75 360.084 687.6889 238.1722 
352 12 41 -0.75 360.084 692.6889 238.1722 
353 12 41 -0.75 360.084 697.6889 238.1722 
354 12 41 -0.75 360.084 702.6889 238.1722 
355 12 41 -0.75 360.084 707.6889 238.1722 
356 12 41 -0.75 360.084 712.6889 238.1722 
357 12 41 -0.75 360.084 717.6889 238.1722 
358 12 41 -0.75 360.084 722.6889 238.1722 
359 12 41 -0.75 360.084 727.6889 238.1722 
360 12 41 -0.75 360.084 732.6889 238.1722 
361 13 41 -0.75 360.084 60 396.3445 
362 13 41 -0.75 360.084 65 396.3445 
363 13 41 -0.75 360.084 70 396.3445 
364 13 41 -0.75 360.084 75 396.3445 
365 13 41 -0.75 360.084 80 396.3445 
366 13 41 -0.75 360.084 85 396.3445 
367 13 41 -0.75 360.084 90 396.3445 
368 13 41 -0.75 360.084 95 396.3445 
369 13 41 -0.75 360.084 100 396.3445 
370 13 41 -0.75 360.084 105 396.3445 
371 13 41 -0.75 360.084 110 396.3445 
372 13 41 -0.75 360.084 115 396.3445 
373 13 41 -0.75 360.084 120 396.3445 
374 13 41 -0.75 360.084 125 396.3445 
375 13 41 -0.75 360.084 130 396.3445 
376 13 41 -0.75 360.084 135 396.3445 
377 13 41 -0.75 360.084 140 396.3445 
378 13 41 -0.75 360.084 145 396.3445 
379 13 41 -0.75 360.084 150 396.3445 
380 13 41 -0.75 360.084 155 396.3445 
381 13 41 -0.75 360.084 160 396.3445 
382 13 41 -0.75 360.084 165 396.3445 
383 13 41 -0.75 360.084 170 396.3445 
384 13 41 -0.75 360.084 175 396.3445 
385 13 41 -0.75 360.084 180 396.3445 
386 13 41 -0.75 360.084 185 396.3445 
387 13 41 -0.75 360.084 190 396.3445 
388 13 41 -0.75 360.084 195 396.3445 
389 13 41 -0.75 360.084 200 396.3445 
390 13 41 -0.75 360.084 205 396.3445 
391 14 41 -0.75 360.084 323.8445 554.5167 
392 14 41 -0.75 360.084 328.8445 554.5167 
393 14 41 -0.75 360.084 333.8445 554.5167 
394 14 41 -0.75 360.084 338.8445 554.5167 
395 14 41 -0.75 360.084 343.8445 554.5167 
396 14 41 -0.75 360.084 348.8445 554.5167 
397 14 41 -0.75 360.084 353.8445 554.5167 
398 14 41 -0.75 360.084 358.8445 554.5167 
399 14 41 -0.75 360.084 363.8445 554.5167 
400 14 41 -0.75 360.084 368.8445 554.5167 
401 14 41 -0.75 360.084 373.8445 554.5167 
402 14 41 -0.75 360.084 378.8445 554.5167 
403 14 41 -0.75 360.084 383.8445 554.5167 
404 14 41 -0.75 360.084 388.8445 554.5167 
405 14 41 -0.75 360.084 393.8445 554.5167 
406 14 41 -0.75 360.084 398.8445 554.5167 
407 14 41 -0.75 360.084 403.8445 554.5167 
408 14 41 -0.75 360.084 408.8445 554.5167 
409 14 41 -0.75 360.084 413.8445 554.5167 
410 14 41 -0.75 360.084 418.8445 554.5167 
411 14 41 -0.75 360.084 423.8445 554.5167 
412 14 41 -0.75 360.084 428.8445 554.5167 
413 14 41 -0.75 360.084 433.8445 554.5167 
414 14 41 -0.75 360.084 438.8445 554.5167 
415 14 41 -0.75 360.084 443.8445 554.5167 
416 14 41 -0.75 360.084 448.8445 554.5167 
417 14 41 -0.75 360.084 453.8445 554.5167 
418 14 41 -0.75 360.084 458.8445 554.5167 
419 14 41 -0.75 360.084 463.8445 554.5167 
420 14 41 -0.75 360.084 468.8445 554.5167 
421 15 41 -0.75 360.084 587.6889 712.6889 
422 15 41 -0.75 360.084 592.6889 712.6889 
423 15 41 -0.75 360.084 597.6889 712.6889 
424 15 41 -0.75 360.084 602.6889 712.6889 
425 15 41 -0.75 360.084 607.6889 712.6889 
426 15 41 -0.75 360.084 612.6889 712.6889 
427 15 41 -0.75 360.084 617.6889 712.6889 
428 15 41 -0.75 360.084 622.6889 712.6889 
429 15 41 -0.75 360.084 627.6889 712.6889 
430 15 41 -0.75 360.084 632.6889 712.6889 
431 15 41 -0.75 360.084 637.6889 712.6889 
432 15 41 -0.75 360.084 642.6889 712.6889 
433 15 41 -0.75 360.084 647.6889 712.6889 
434 15 41 -0.75 360.084 652.6889 712.6889 
435 15 41 -0.75 360.084 657.6889 712.6889 
436 15 41 -0.75 360.084 662.6889 712.6889 
437 15 41 -0.75 360.084 667.6889 712.6889 
438 15 41 -0.75 360.084 672.6889 712.6889 
439 15 41 -0.75 360.084 677.6889 712.6889 
440 15 41 -0.75 360.084 682.6889 712.6889 
441 15 41 -0.75 360.084 687.6889 712.6889 
442 15 41 -0.75 360.084 692.6889 712.6889 
443 15 41 -0.75 360.084 697.6889 712.6889 
444 15 41 -0.75 360.084 702.6889 712.6889 
445 15 41 -0.75 360.084 707.6889 712.6889 
446 15 41 -0.75 360.084 712.6889 712.6889 
447 15 41 -0.75 360.084 717.6889 712.6889 
448 15 41 -0.75 360.084 722.6889 712.6889 
449 15 41 -0.75 360.084 727.6889 712.6889 
450 15 41 -0.75 360.084 732.6889 712.6889 
451 16 41 -0.75 505.126 60 80 
452 16 41 -0.75 505.126 65 80 
453 16 41 -0.75 505.126 70 80 
454 16 41 -0.75 505.126 75 80 
455 16 41 -0.75 505.126 80 80 
456 16 41 -0.75 505.126 85 80 
457 16 41 -0.75 505.126 90 80 
458 16 41 -0.75 505.126 95 80 
459 16 41 -0.75 505.126 100 80 
460 16 41 -0.75 505.126 105 80 
461 16 41 -0.75 505.126 110 80 
462 16 41 -0.75 505.126 115 80 
463 16 41 -0.75 505.126 120 80 
464 16 41 -0.75 505.126 125 80 
465 16 41 -0.75 505.126 130 80 
466 16 41 -0.75 505.126 135 80 
467 16 41 -0.75 505.126 140 80 
468 16 41 -0.75 505.126 145 80 
469 16 41 -0.75 505.126 150 80 
470 16 41 -0.75 505.126 155 80 
471 16 41 -0.75 505.126 160 80 
472 16 41 -0.75 505.126 165 80 
473 16 41 -0.75 505.126 170 80 
474 16 41 -0.75 505.126 175 80 
475 16 41 -0.75 505.126 180 80 
476 16 41 -0.75 505.126 185 80 
477 16 41 -0.75 505.126 190 80 
478 16 41 -0.75 505.126 195 80 
479 16 41 -0.75 505.126 200 80 
480 16 41 -0.75 505.126 205 80 
481 17 41 -0.75 505.126 323.8445 238.1722 
482 17 41 -0.75 505.126 328.8445 238.1722 
483 17 41 -0.75 505.126 333.8445 238.1722 
484 17 41 -0.75 505.126 338.8445 238.1722 
485 17 41 -0.75 505.126 343.8445 238.1722 
486 17 41 -0.75 505.126 348.8445 238.1722 
487 17 41 -0.75 505.126 353.8445 238.1722 
488 17 41 -0.75 505.126 358.8445 238.1722 
489 17 41 -0.75 505.126 363.8445 238.1722 
490 17 41 -0.75 505.126 368.8445 238.1722 
491 17 41 -0.75 505.126 373.8445 238.1722 
492 17 41 -0.75 505.126 378.8445 238.1722 
493 17 41 -0.75 505.126 383.8445 238.1722 
494 17 41 -0.75 505.126 388.8445 238.1722 
495 17 41 -0.75 505.126 393.8445 238.1722 
496 17 41 -0.75 505.126 398.8445 238.1722 
497 17 41 -0.75 505.126 403.8445 238.1722 
498 17 41 -0.75 505.126 408.8445 238.1722 
499 17 41 -0.75 505.126 413.8445 238.1722 
500 17 41 -0.75 505.126 418.8445 238.1722 
501 17 41 -0.75 505.126 423.8445 238.1722 
502 17 41 -0.75 505.126 428.8445 238.1722 
503 17 41 -0.75 505.126 433.8445 238.1722 
504 17 41 -0.75 505.126 438.8445 238.1722 
505 17 41 -0.75 505.126 443.8445 238.1722 
506 17 41 -0.75 505.126 448.8445 238.1722 
507 17 41 -0.75 505.126 453.8445 238.1722 
508 17 41 -0.75 505.126 458.8445 238.1722 
509 17 41 -0.75 505.126 463.8445 238.1722 
510 17 41 -0.75 505.126 468.8445 238.1722 
511 18 41 -0.75 505.126 587.6889 396.3445 
512 18 41 -0.75 505.126 592.6889 396.3445 
513 18 41 -0.75 505.126 597.6889 396.3445 
514 18 41 -0.75 505.126 602.6889 396.3445 
515 18 41 -0.75 505.126 607.6889 396.3445 
516 18 41 -0.75 505.126 612.6889 396.3445 
517 18 41 -0.75 505.126 617.6889 396.3445 
518 18 41 -0.75 505.126 622.6889 396.3445 
519 18 41 -0.75 505.126 627.6889 396.3445 
520 18 41 -0.75 505.126 632.6889 396.3445 
521 18 41 -0.75 505.126 637.6889 396.3445 
522 18 41 -0.75 505.126 642.6889 396.3445 
523 18 41 -0.75 505.126 647.6889 396.3445 
524 18 41 -0.75 505.126 652.6889 396.3445 
525 18 41 -0.75 505.126 657.6889 396.3445 
526 18 41 -0.75 505.126 662.6889 396.3445 
527 18 41 -0.75 505.126 667.6889 396.3445 
528 18 41 -0.75 505.126 672.6889 396.3445 
529 18 41 -0.75 505.126 677.6889 396.3445 
530 18 41 -0.75 505.126 682.6889 396.3445 
531 18 41 -0.75 505.126 687.6889 396.3445 
532 18 41 -0.75 505.126 692.6889 396.3445 
533 18 41 -0.75 505.126 697.6889 396.3445 
534 18 41 -0.75 505.126 702.6889 396.3445 
535 18 41 -0.75 505.126 707.6889 396.3445 
536 18 41 -0.75 505.126 712.6889 396.3445 
537 18 41 -0.75 505.126 717.6889 396.3445 
538 18 41 -0.75 505.126 722.6889 396.3445 
539 18 41 -0.75 505.126 727.6889 396.3445 
540 18 41 -0.75 505.126 732.6889 396.3445 
541 19 41 -0.75 505.126 60 554.5167 
542 19 41 -0.75 505.126 65 554.5167 
543 19 41 -0.75 505.126 70 554.5167 
544 19 41 -0.75 505.126 75 554.5167 
545 19 41 -0.75 505.126 80 554.5167 
546 19 41 -0.75 505.126 85 554.5167 
547 19 41 -0.75 505.126 90 554.5167 
548 19 41 -0.75 505.126 95 554.5167 
549 19 41 -0.75 505.126 100 554.5167 
550 19 41 -0.75 505.126 105 554.5167 
551 19 41 -0.75 505.126 110 554.5167 
552 19 41 -0.75 505.126 115 554.5167 
553 19 41 -0.75 505.126 120 554.5167 
554 19 41 -0.75 505.126 125 554.5167 
555 19 41 -0.75 505.126 130 554.5167 
556 19 41 -0.75 505.126 135 554.5167 
557 19 41 -0.75 505.126 140 554.5167 
558 19 41 -0.75 505.126 145 554.5167 
559 19 41 -0.75 505.126 150 554.5167 
560 19 41 -0.75 505.126 155 554.5167 
561 19 41 -0.75 505.126 160 554.5167 
562 19 41 -0.75 505.126 165 554.5167 
563 19 41 -0.75 505.126 170 554.5167 
564 19 41 -0.75 505.126 175 554.5167 
565 19 41 -0.75 505.126 180 554.5167 
566 19 41 -0.75 505.126 185 554.5167 
567 19 41 -0.75 505.126 190 554.5167 
568 19 41 -0.75 505.126 195 554.5167 
569 19 41 -0.75 505.126 200 554.5167 
570 19 41 -0.75 505.126 205 554.5167 
571 20 41 -0.75 505.126 323.8445 712.6889 
572 20 41 -0.75 505.126 328.8445 712.6889 
573 20 41 -0.75 505.126 333.8445 712.6889 
574 20 41 -0.75 505.126 338.8445 712.6889 
575 20 41 -0.75 505.126 343.8445 712.6889 
576 20 41 -0.75 505.126 348.8445 712.6889 
577 20 41 -0.75 505.126 353.8445 712.6889 
578 20 41 -0.75 505.126 358.8445 712.6889 
579 20 41 -0.75 505.126 363.8445 712.6889 
580 20 41 -0.75 505.126 368.8445 712.6889 
581 20 41 -0.75 505.126 373.8445 712.6889 
582 20 41 -0.75 505.126 378.8445 712.6889 
583 20 41 -0.75 505.126 383.8445 712.6889 
584 20 41 -0.75 505.126 388.8445 712.6889 
585 20 41 -0.75 505.126 393.8445 712.6889 
586 20 41 -0.75 505.126 398.8445 712.6889 
587 20 41 -0.75 505.126 403.8445 712.6889 
588 20 41 -0.75 505.126 408.8445 712.6889 
589 20 41 -0.75 505.126 413.8445 712.6889 
590 20 41 -0.75 505.126 418.8445 712.6889 
591 20 41 -0.75 505.126 423.8445 712.6889 
592 20 41 -0.75 505.126 428.8445 712.6889 
593 20 41 -0.75 505.126 433.8445 712.6889 
594 20 41 -0.75 505.126 438.8445 712.6889 
595 20 41 -0.75 505.126 443.8445 712.6889 
596 20 41 -0.75 505.126 448.8445 712.6889 
597 20 41 -0.75 505.126 453.8445 712.6889 
598 20 41 -0.75 505.126 458.8445 712.6889 
599 20 41 -0.75 505.126 463.8445 712.6889 
600 20 41 -0.75 505.126 468.8445 712.6889 
601 21 41 -0.75 650.1679 587.6889 80 
602 21 41 -0.75 650.1679 592.6889 80 
603 21 41 -0.75 650.1679 597.6889 80 
604 21 41 -0.75 650.1679 602.6889 80 
605 21 41 -0.75 650.1679 607.6889 80 
606 21 41 -0.75 650.1679 612.6889 80 
607 21 41 -0.75 650.1679 617.6889 80 
608 21 41 -0.75 650.1679 622.6889 80 
609 21 41 -0.75 650.1679 627.6889 80 
610 21 41 -0.75 650.1679 632.6889 80 
611 21 41 -0.75 650.1679 637.6889 80 
612 21 41 -0.75 650.1679 642.6889 80 
613 21 41 -0.75 650.1679 647.6889 80 
614 21 41 -0.75 650.1679 652.6889 80 
615 21 41 -0.75 650.1679 657.6889 80 
616 21 41 -0.75 650.1679 662.6889 80 
617 21 41 -0.75 650.1679 667.6889 80 
618 21 41 -0.75 650.1679 672.6889 80 
619 21 41 -0.75 650.1679 677.6889 80 
620 21 41 -0.75 650.1679 682.6889 80 
621 21 41 -0.75 650.1679 687.6889 80 
622 21 41 -0.75 650.1679 692.6889 80 
623 21 41 -0.75 650.1679 697.6889 80 
624 21 41 -0.75 650.1679 702.6889 80 
625 21 41 -0.75 650.1679 707.6889 80 
626 21 41 -0.75 650.1679 712.6889 80 
627 21 41 -0.75 650.1679 717.6889 80 
628 21 41 -0.75 650.1679 722.6889 80 
629 21 41 -0.75 650.1679 727.6889 80 
630 21 41 -0.75 650.1679 732.6889 80 
631 22 41 -0.75 650.1679 60 238.1722 
632 22 41 -0.75 650.1679 65 238.1722 
633 22 41 -0.75 650.1679 70 238.1722 
634 22 41 -0.75 650.1679 75 238.1722 
635 22 41 -0.75 650.1679 80 238.1722 
636 22 41 -0.75 650.1679 85 238.1722 
637 22 41 -0.75 650.1679 90 238.1722 
638 22 41 -0.75 650.1679 95 238.1722 
639 22 41 -0.75 650.1679 100 238.1722 
640 22 41 -0.75 650.1679 105 238.1722 
641 22 41 -0.75 650.1679 110 238.1722 
642 22 41 -0.75 650.1679 115 238.1722 
643 22 41 -0.75 650.1679 120 238.1722 
644 22 41 -0.75 650.1679 125 238.1722 
645 22 41 -0.75 650.1679 130 238.1722 
646 22 41 -0.75 650.1679 135 238.1722 
647 22 41 -0.75 650.1679 140 238.1722 
648 22 41 -0.75 650.1679 145 238.1722 
649 22 41 -0.75 650.1679 150 238.1722 
650 22 41 -0.75 650.1679 155 238.1722 
651 22 41 -0.75 650.1679 160 238.1722 
652 22 41 -0.75 650.1679 165 238.1722 
653 22 41 -0.75 650.1679 170 238.1722 
654 22 41 -0.75 650.1679 175 238.1722 
655 22 41 -0.75 650.1679 180 238.1722 
656 22 41 -0.75 650.1679 185 238.1722 
657 22 41 -0.75 650.1679 190 238.1722 
658 22 41 -0.75 650.1679 195 238.1722 
659 22 41 -0.75 650.1679 200 238.1722 
660 22 41 -0.75 650.1679 205 238.1722 
661 23 41 -0.75 650.1679 323.8445 396.3445 
662 23 41 -0.75 650.1679 328.8445 396.3445 
663 23 41 -0.75 650.1679 333.8445 396.3445 
664 23 41 -0.75 650.1679 338.8445 396.3445 
665 23 41 -0.75 650.1679 343.8445 396.3445 
666 23 41 -0.75 650.1679 348.8445 396.3445 
667 23 41 -0.75 650.1679 353.8445 396.3445 
668 23 41 -0.75 650.1679 358.8445 396.3445 
669 23 41 -0.75 650.1679 363.8445 396.3445 
670 23 41 -0.75 650.1679 368.8445 396.3445 
671 23 41 -0.75 650.1679 373.8445 396.3445 
672 23 41 -0.75 650.1679 378.8445 396.3445 
673 23 41 -0.75 650.1679 383.8445 396.3445 
674 23 41 -0.75 650.1679 388.8445 396.3445 
675 23 41 -0.75 650.1679 393.8445 396.3445 
676 23 41 -0.75 650.1679 398.8445 396.3445 
677 23 41 -0.75 650.1679 403.8445 396.3445 
678 23 41 -0.75 650.1679 408.8445 396.3445 
679 23 41 -0.75 650.1679 413.8445 396.3445 
680 23 41 -0.75 650.1679 418.8445 396.3445 
681 23 41 -0.75 650.1679 423.8445 396.3445 
682 23 41 -0.75 650.1679 428.8445 396.3445 
683 23 41 -0.75 650.1679 433.8445 396.3445 
684 23 41 -0.75 650.1679 438.8445 396.3445 
685 23 41 -0.75 650.1679 443.8445 396.3445 
686 23 41 -0.75 650.1679 448.8445 396.3445 
687 23 41 -0.75 650.1679 453.8445 396.3445 
688 23 41 -0.75 650.1679 458.8445 396.3445 
689 23 41 -0.75 650.1679 463.8445 396.3445 
690 23 41 -0.75 650.1679 468.8445 396.3445 
691 24 41 -0.75 650.1679 587.6889 554.5167 
692 24 41 -0.75 650.1679 592.6889 554.5167 
693 24 41 -0.75 650.1679 597.6889 554.5167 
694 24 41 -0.75 650.1679 602.6889 554.5167 
695 24 41 -0.75 650.1679 607.6889 554.5167 
696 24 41 -0.75 650.1679 612.6889 554.5167 
697 24 41 -0.75 650.1679 617.6889 554.5167 
698 24 41 -0.75 650.1679 622.6889 554.5167 
699 24 41 -0.75 650.1679 627.6889 554.5167 
700 24 41 -0.75 650.1679 632.6889 554.5167 
701 24 41 -0.75 650.1679 637.6889 554.5167 
702 24 41 -0.75 650.1679 642.6889 554.5167 
703 24 41 -0.75 650.1679 647.6889 554.5167 
704 24 41 -0.75 650.1679 652.6889 554.5167 
705 24 41 -0.75 650.1679 657.6889 554.5167 
706 24 41 -0.75 650.1679 662.6889 554.5167 
707 24 41 -0.75 650.1679 667.6889 554.5167 
708 24 41 -0.75 650.1679 672.6889 554.5167 
709 24 41 -0.75 650.1679 677.6889 554.5167 
710 24 41 -0.75 650.1679 682.6889 554.5167 
711 24 41 -0.75 650.1679 687.6889 554.5167 
712 24 41 -0.75 650.1679 692.6889 554.5167 
713 24 41 -0.75 650.1679 697.6889 554.5167 
714 24 41 -0.75 650.1679 702.6889 554.5167 
715 24 41 -0.75 650.1679 707.6889 554.5167 
716 24 41 -0.75 650.1679 712.6889 554.5167 
717 24 41 -0.75 650.1679 717.6889 554.5167 
718 24 41 -0.75 650.1679 722.6889 554.5167 
719 24 41 -0.75 650.1679 727.6889 554.5167 
720 24 41 -0.75 650.1679 732.6889 554.5167 
721 25 41 -0.75 650.1679 60 712.6889 
722 25 41 -0.75 650.1679 65 712.6889 
723 25 41 -0.75 650.1679 70 712.6889 
724 25 41 -0.75 650.1679 75 712.6889 
725 25 41 -0.75 650.1679 80 712.6889 
726 25 41 -0.75 650.1679 85 712.6889 
727 25 41 -0.75 650.1679 90 712.6889 
728 25 41 -0.75 650.1679 95 712.6889 
729 25 41 -0.75 650.1679 100 712.6889 
730 25 41 -0.75 650.1679 105 712.6889 
731 25 41 -0.75 650.1679 110 712.6889 
732 25 41 -0.75 650.1679 115 712.6889 
733 25 41 -0.75 650.1679 120 712.6889 
734 25 41 -0.75 650.1679 125 712.6889 
735 25 41 -0.75 650.1679 130 712.6889 
736 25 41 -0.75 650.1679 135 712.6889 
737 25 41 -0.75 650.1679 140 712.6889 
738 25 41 -0.75 650.1679 145 712.6889 
739 25 41 -0.75 650.1679 150 712.6889 
740 25 41 -0.75 650.1679 155 712.6889 
741 25 41 -0.75 650.1679 160 712.6889 
742 25 41 -0.75 650.1679 165 712.6889 
743 25 41 -0.75 650.1679 170 712.6889 
744 25 41 -0.75 650.1679 175 712.6889 
745 25 41 -0.75 650.1679 180 712.6889 
746 25 41 -0.75 650.1679 185 712.6889 
747 25 41 -0.75 650.1679 190 712.6889 
748 25 41 -0.75 650.1679 195 712.6889 
749 25 41 -0.75 650.1679 200 712.6889 
750 25 41 -0.75 650.1679 205 712.6889 
751 26 41 -0.75 70 323.8445 80 
752 26 41 -0.75 70 328.8445 80 
753 26 41 -0.75 70 333.8445 80 
754 26 41 -0.75 70 338.8445 80 
755 26 41 -0.75 70 343.8445 80 
756 26 41 -0.75 70 348.8445 80 
757 26 41 -0.75 70 353.8445 80 
758 26 41 -0.75 70 358.8445 80 
759 26 41 -0.75 70 363.8445 80 
760 26 41 -0.75 70 368.8445 80 
761 26 41 -0.75 70 373.8445 80 
762 26 41 -0.75 70 378.8445 80 
763 26 41 -0.75 70 383.8445 80 
764 26 41 -0.75 70 388.8445 80 
765 26 41 -0.75 70 393.8445 80 